 Gaussian 16, Revision C.01,
 Gaussian 16:  ES64L-G16RevC.01  3-Jul-2019

 ------------------------
 #p HF/cc-pvdz Freq=Raman
 ------------------------

 -----
 ch3oh
 -----
 Symbolic Z-matrix:
 Charge =  0 Multiplicity = 1

                         Standard orientation:
 ---------------------------------------------------------------------
 Center     Atomic      Atomic             Coordinates (Angstroms)
 Number     Number       Type             X           Y           Z
 ---------------------------------------------------------------------
      1          6           0       -0.046573    0.662925    0.000000
      2          1           0       -1.087867    0.977315    0.000000
      3          1           0        0.437742    1.073831    0.889854
      4          1           0        0.437742    1.073831   -0.889854
      5          8           0       -0.046573   -0.756341    0.000000
      6          1           0        0.864403   -1.051800    0.000000
 ---------------------------------------------------------------------

 SCF Done:  E(RHF) =  -115.049242997     A.U. after   11 cycles

 The electronic state is 1-A'.
 Alpha  occ. eigenvalues --  -20.54903 -11.27412  -1.35019  -0.92185  -0.68326
 Alpha  occ. eigenvalues --   -0.61436  -0.58552  -0.49652  -0.44279
 Alpha virt. eigenvalues --    0.18487   0.22472   0.26679   0.26811   0.36359
 Alpha virt. eigenvalues --    0.62731   0.64370   0.72805   0.80655   0.86191
 Alpha virt. eigenvalues --    0.89945   0.90325   1.11571   1.14958   1.16745

 Mulliken charges:
               1
     1  C    0.157711
     2  H    0.039812
     3  H    0.015555
     4  H    0.015555
     5  O   -0.387397
     6  H    0.158763
 Sum of Mulliken charges =  -0.00000

 Dipole moment (field-independent basis, Debye):
    X=              1.4532    Y=              1.0663    Z=              0.0000  Tot=              1.8025
 Quadrupole moment (field-independent basis, Debye-Ang):
   XX=            -11.5102   YY=            -13.0727   ZZ=            -13.4785
   XY=             -2.1106   XZ=              0.0000   YZ=              0.0000

  Exact polarizability:      15.812      -1.065      16.666       0.000       0.000      13.907
 Approx polarizability:      13.429      -0.535      13.337       0.000       0.000      11.392

                      1                      2                      3
                     A"                     A'                     A'
 Frequencies --    538.9167              1114.8107              1169.1346
 Red. masses --      1.0690                 6.6155                 1.1058
 Frc consts  --      0.1829                 4.8441                 0.8906
 IR Inten    --    123.0458                83.9686                39.8203
 Raman Activ --      2.9801                 9.4568                 1.3851

                      4                      5                      6
                     A"                     A'                     A'
 Frequencies --   1246.5567              1514.9908              1582.7890
 Red. masses --      1.2657                 1.2736                 1.1487
 Frc consts  --      1.1588                 1.7223                 1.6956
 IR Inten    --      2.8655                46.9530                10.8457
 Raman Activ --      4.3327                 1.5815                 2.9794

                      7                      8                      9
                     A"                     A'                     A'
 Frequencies --   1597.5547              1606.6977              3169.8185
 Red. masses --      1.0481                 1.0408                 1.0355
 Frc consts  --      1.5760                 1.5830                 6.1300
 IR Inten    --      1.9964                 2.9847                57.0136
 Raman Activ --     14.1583                14.3596               144.1057

                     10                     11                     12
                     A"                     A'                     A'
 Frequencies --   3230.8527              3291.9694              3976.5917
 Red. masses --      1.1072                 1.1014                 1.0668
 Frc consts  --      6.8094                 7.0322                 9.9396
 IR Inten    --     87.1992                44.3364                46.6029
 Raman Activ --     73.9309                80.8544                69.0483

 - Thermochemistry -
 -------------------
 Temperature   298.150 Kelvin.  Pressure   1.00000 Atm.
 Atom     1 has atomic number  6 and mass  12.00000

 Molecular mass:    32.02621 amu.
 Principal axes and moments of inertia in atomic units:
                           1         2         3
     Eigenvalues --    14.02515  72.62875  75.25454
           X           -0.05424   0.99853   0.00000
           Y            0.99853   0.05424   0.00000
           Z           -0.00000  -0.00000   1.00000
 This molecule is an asymmetric top.
 Rotational symmetry number  1.
 Rotational temperatures (Kelvin)      6.17562     1.19256     1.15095
 Rotational constants (GHZ):         128.67895    24.84885    23.98182
 Zero-point vibrational energy     143795.2 (Joules/Mol)
                                   34.36788 (Kcal/Mol)
 Warning -- explicit consideration of   1 degrees of freedom as
           vibrations may cause significant error
 Vibrational temperatures:    775.38  1603.96  1682.12  1793.52  2179.73
          (Kelvin)           2277.28  2298.52  2311.68  4560.66  4648.48
                             4736.41  5721.43

 Zero-point correction=                           0.054769 (Hartree/Particle)
 Thermal correction to Energy=                    0.057869
 Thermal correction to Enthalpy=                  0.058813
 Thermal correction to Gibbs Free Energy=         0.032185
 Sum of electronic and zero-point Energies=           -114.994474
 Sum of electronic and thermal Energies=              -114.991374
 Sum of electronic and thermal Enthalpies=            -114.990430
 Sum of electronic and thermal Free Energies=         -115.017058

                     E (Thermal)             CV                S
                      KCal/Mol        Cal/Mol-Kelvin    Cal/Mol-Kelvin
 Total                   36.313              8.027             56.044
 Electronic               0.000              0.000              0.000
 Translational            0.889              2.981             36.324
 Rotational               0.889              2.981             18.978
 Vibrational             34.536              2.065              0.742
 Vibration     1          0.894              1.164              0.568

 Normal termination of Gaussian 16 at Mon Aug 14 08:35:47 2023.
